 Q-Chem 5.2 (devel), Q-Chem, Inc., Pleasanton, CA (2019)
 Q-Chem 5.2.1 for Intel X86 EM64T Linux

User input:
--------------------------------------------------------------
$molecule
   0 1
   C                0.017280    -0.012020     0.013000
   H               -0.652929    -0.742375    -0.275619
   H               -0.562603     0.917803    -0.158361
   H                0.297544    -0.130384     1.043117
   H                0.907104    -0.023209    -0.617229
$end

$rem
   METHOD               wB97X
   BASIS                6-31G*
   JOBTYPE              sp
   EFP_COORD_XYZ        true
   EFP_FRAGMENTS_ONLY   true
   EFP_DISP_DAMP        1
   EFP_QM_DISP          true
   EFP_QM_EXREP         true
   EFP_DISP_DAMP        2
   SYM_IGNORE           true
$end

--------------------------------------------------------------

             Standard Nuclear Orientation (Angstroms)
    I     Atom           X                Y                Z
 ----------------------------------------------------------------
    1      C       0.0172800000    -0.0120200000     0.0130000000
    2      H      -0.6529290000    -0.7423750000    -0.2756190000
    3      H      -0.5626030000     0.9178030000    -0.1583610000
    4      H       0.2975440000    -0.1303840000     1.0431170000
    5      H       0.9071040000    -0.0232090000    -0.6172290000
 ----------------------------------------------------------------

    6     -40.4947023263      8.74E-06 Convergence criterion met
 Total energy in the final basis set = -40.49470233

                    Orbital Energies (a.u.)
 --------------------------------------------------------------

 Alpha MOs
 -- Occupied --
-10.2411  -0.8236  -0.5115  -0.4975  -0.4844

          Ground-State Mulliken Net Atomic Charges

     Atom                 Charge (a.u.)
  ----------------------------------------
      1 C                    -0.674376
      2 H                     0.178712
      3 H                     0.158205
      4 H                     0.171080
      5 H                     0.166378
  ----------------------------------------
  Sum of atomic charges =     0.000000

                    Cartesian Multipole Moments
 -----------------------------------------------------------------
    Charge (ESU x 10^10)
                -0.0000
    Dipole Moment (Debye)
         X      -0.0555      Y      -0.0382      Z      -0.0211
       Tot       0.0706
    Quadrupole Moments (Debye-Ang)
        XX      -8.0355     XY      -0.0492     YY      -8.4342
        XZ       0.0595     YZ      -0.0660     ZZ      -8.1475

 Total job time:  0.66s(wall), 10.05s(cpu)
        *  Thank you very much for using Q-Chem.  Have a nice day.  *
