 Q-Chem 5.2 (devel), Q-Chem, Inc., Pleasanton, CA (2019)
 Q-Chem 5.2.1 for Intel X86 EM64T Linux

User input:
--------------------------------------------------------------
$molecule
   0 1
   C                0.020680    -0.011600     0.013800
   H               -0.649249    -0.743985    -0.280493
   H               -0.572823     0.906472    -0.164518
   H                0.297346    -0.128678     1.042366
   H                0.916797    -0.020617    -0.621726
$end

$rem
   METHOD               wB97X
   BASIS                6-31G*
   JOBTYPE              sp
   EFP_COORD_XYZ        true
   EFP_FRAGMENTS_ONLY   true
   EFP_DISP_DAMP        1
   EFP_QM_DISP          true
   EFP_QM_EXREP         true
   EFP_DISP_DAMP        2
   SYM_IGNORE           true
$end

--------------------------------------------------------------

             Standard Nuclear Orientation (Angstroms)
    I     Atom           X                Y                Z
 ----------------------------------------------------------------
    1      C       0.0206800000    -0.0116000000     0.0138000000
    2      H      -0.6492490000    -0.7439850000    -0.2804930000
    3      H      -0.5728230000     0.9064720000    -0.1645180000
    4      H       0.2973460000    -0.1286780000     1.0423660000
    5      H       0.9167970000    -0.0206170000    -0.6217260000
 ----------------------------------------------------------------

    6     -40.4944812038      8.79E-06 Convergence criterion met
 Total energy in the final basis set = -40.49448120

                    Orbital Energies (a.u.)
 --------------------------------------------------------------

 Alpha MOs
 -- Occupied --
-10.2419  -0.8232  -0.5125  -0.4968  -0.4830

          Ground-State Mulliken Net Atomic Charges

     Atom                 Charge (a.u.)
  ----------------------------------------
      1 C                    -0.673980
      2 H                     0.178053
      3 H                     0.158809
      4 H                     0.172350
      5 H                     0.164769
  ----------------------------------------
  Sum of atomic charges =     0.000000

                    Cartesian Multipole Moments
 -----------------------------------------------------------------
    Charge (ESU x 10^10)
                -0.0000
    Dipole Moment (Debye)
         X      -0.0658      Y      -0.0397      Z      -0.0213
       Tot       0.0797
    Quadrupole Moments (Debye-Ang)
        XX      -8.0219     XY      -0.0578     YY      -8.4731
        XZ       0.0656     YZ      -0.0682     ZZ      -8.1389

 Total job time:  2.07s(wall), 30.30s(cpu)
        *  Thank you very much for using Q-Chem.  Have a nice day.  *
