 Q-Chem 5.2 (devel), Q-Chem, Inc., Pleasanton, CA (2019)
 Q-Chem 5.2.1 for Intel X86 EM64T Linux

User input:
--------------------------------------------------------------
$molecule
   0 1
   C                0.020680    -0.011600     0.013800
   H               -0.649249    -0.743985    -0.280493
   H               -0.572823     0.906472    -0.164518
   H                0.297346    -0.128678     1.042366
   H                0.916797    -0.020617    -0.621726
$end

$rem
   METHOD               wB97X
   BASIS                6-31G*
   JOBTYPE              sp
   EFP_COORD_XYZ        true
   EFP_FRAGMENTS_ONLY   false
   EFP_DISP_DAMP        1
   EFP_QM_DISP          true
   EFP_QM_EXREP         true
   EFP_DISP_DAMP        2
   SYM_IGNORE           true
$end

$efp_fragments
water
   A01O1                2.258080     1.455500    -2.356500
   A02H2                2.353369     2.209156    -1.771184
   A03H3                2.600316     1.776554    -3.192843
water
   A01O1               -1.476820    -2.654900    -0.149100
   A02H2               -1.749574    -2.209538    -0.953419
   A03H3               -0.571556    -2.913263    -0.331901
water
   A01O1               -0.917420    -1.769900     2.561600
   A02H2               -0.137925    -1.503337     2.070680
   A03H3               -1.639061    -1.377584     2.066632
water
   A01O1                1.529480    -1.662000    -2.558800
   A02H2                1.410704    -1.107382    -1.785520
   A03H3                2.243622    -1.233594    -3.034343
water
   A01O1                2.208980     1.687200     0.581500
   A02H2                3.086074     1.545618     0.220486
   A03H3                1.639874     1.194178    -0.012402
water
   A01O1               -2.642320     0.012000    -1.255400
   A02H2               -2.802251     0.404567    -0.395176
   A03H3               -2.028298     0.621420    -1.669230
water
   A01O1               -2.336020    -2.394300     2.444400
   A02H2               -2.018176    -3.253639     2.727567
   A03H3               -3.127736    -2.601705     1.944560
$end

--------------------------------------------------------------

             Standard Nuclear Orientation (Angstroms)
    I     Atom           X                Y                Z
 ----------------------------------------------------------------
    1      C       0.0206800000    -0.0116000000     0.0138000000
    2      H      -0.6492490000    -0.7439850000    -0.2804930000
    3      H      -0.5728230000     0.9064720000    -0.1645180000
    4      H       0.2973460000    -0.1286780000     1.0423660000
    5      H       0.9167970000    -0.0206170000    -0.6217260000
 ----------------------------------------------------------------

    7     -40.2917274355      9.66E-07 Convergence criterion met
 Total energy in the final basis set = -40.29172744

                    Orbital Energies (a.u.)
 --------------------------------------------------------------

 Alpha MOs
 -- Occupied --
-10.2736  -0.8564  -0.5465  -0.5325  -0.5130

          Ground-State Mulliken Net Atomic Charges

     Atom                 Charge (a.u.)
  ----------------------------------------
      1 C                    -0.738421
      2 H                     0.290912
      3 H                     0.141904
      4 H                     0.221919
      5 H                     0.083687
  ----------------------------------------
  Sum of atomic charges =     0.000000

                    Cartesian Multipole Moments
 -----------------------------------------------------------------
    Charge (ESU x 10^10)
                -0.0000
    Dipole Moment (Debye)
         X      -0.5395      Y      -0.3907      Z       0.2222
       Tot       0.7022
    Quadrupole Moments (Debye-Ang)
        XX      -8.1426     XY       0.1088     YY      -8.3541
        XZ       0.3117     YZ      -0.0073     ZZ      -8.0537

 Total job time:  11.30s(wall), 66.74s(cpu)
        *  Thank you very much for using Q-Chem.  Have a nice day.  *
