 Q-Chem 5.2 (devel), Q-Chem, Inc., Pleasanton, CA (2019)
 Q-Chem 5.2.1 for Intel X86 EM64T Linux

User input:
--------------------------------------------------------------
$molecule
   0  1
   C    2.73000    2.74000    2.71000
   H    2.07000    1.89000    2.41000
   H    2.27000    3.72000    2.42000
   H    2.82000    2.71000    3.81000
   H    3.76000    2.63000    2.30000
   O    4.90000    4.36000    1.35000
   H    5.83000    4.43000    0.99000
   H    4.30000    3.95000    0.66000
   O    1.22000    0.32000    2.62000
   H    1.08000    0.34000    1.63000
   H    1.76000   -0.48000    2.88000
   O    1.43000    1.28000    0.37000
   H    2.22000    0.77000    0.06000
   H    1.19000    1.99000   -0.29000
   O    4.00000    1.21000    0.25000
   H    3.90000    1.53000    1.19000
   H    4.77000    1.68000   -0.19000
   O    4.85000    4.61000    3.10000
   H    5.51000    4.01000    3.56000
   H    4.04000    4.08000    2.84000
   O    0.43000    2.52000    1.36000
   H   -0.08000    2.84000    2.16000
   H    1.33000    2.96000    1.33000
   O    5.53000    5.52000    5.00000
   H    6.10000    4.73000    4.76000
   H    4.76000    5.59000    4.37000

$rem
   JOBTYPE              aimd
   AIMD_METHOD          bomd
   METHOD               wb97
   BASIS                6-31g*
   TIME_STEP            15        (15 a.u. = 0.363 fs)
   AIMD_STEPS           100
   AIMD_INIT_VELOC      thermal
   AIMD_TEMP            298
   FOCK_EXTRAP_ORDER    6         request Fock matrix extrapolation
   FOCK_EXTRAP_POINTS   12
   SCF_CONVERGENCE      6
   MAX_SCF_CYCLES       100
$end
--------------------------------------------------------------

   11    -575.0123569923      3.99e-07  Convergence criterion met
 Total energy in the final basis set =     -575.0123569923

                    Orbital Energies (a.u.)
 --------------------------------------------------------------

 Alpha MOs
 -- Occupied --
-19.0451 -19.0189 -18.9992 -18.9844 -18.9833 -18.9810 -18.9439 -10.1410
 -1.1742  -1.1594  -1.1454  -1.1093  -1.0929  -1.0841  -1.0514  -0.8706
 -0.6914  -0.6851  -0.6717  -0.6519  -0.6423  -0.6196  -0.6087  -0.5588
 -0.5526  -0.5368  -0.5259  -0.5184  -0.4976  -0.4924  -0.4547  -0.4495
 -0.4272  -0.4209  -0.4131  -0.4064  -0.3799  -0.3577  -0.3555  -0.2962

          Ground-State Mulliken Net Atomic Charges

     Atom                 Charge (a.u.)
  ----------------------------------------
      1 C                    -0.841631
      2 H                     0.335091
      3 H                     0.153093
      4 H                     0.202349
      5 H                     0.106185
      6 O                    -0.705282
      7 H                     0.372740
      8 H                     0.313842
      9 O                    -0.798916
     10 H                     0.433107
     11 H                     0.371676
     12 O                    -0.766416
     13 H                     0.391134
     14 H                     0.402927
     15 O                    -0.798831
     16 H                     0.416887
     17 H                     0.397251
     18 O                    -0.730923
     19 H                     0.341876
     20 H                     0.441712
     21 O                    -0.750959
     22 H                     0.369592
     23 H                     0.384148
     24 O                    -0.813405
     25 H                     0.343259
     26 H                     0.429491
  ----------------------------------------
  Sum of atomic charges =     0.000000

                    Cartesian Multipole Moments
 -----------------------------------------------------------------
    Charge (ESU x 10^10)
                -0.0000
    Dipole Moment (Debye)
         X       2.2409      Y      -2.6798      Z      -4.4460
       Tot       5.6542
    Quadrupole Moments (Debye-Ang)
        XX     -40.7655     XY     -16.8619     YY     -81.8519
        XZ     -20.1361     YZ     -31.8705     ZZ     -78.4326

   11    -575.0121378185      3.97E-07 Convergence criterion met
 Total energy in the final basis set = -575.01213782
   11    -575.0138519764      3.88E-07 Convergence criterion met
 Total energy in the final basis set = -575.01385198
   11    -575.0171285204      3.70E-07 Convergence criterion met
 Total energy in the final basis set = -575.01712852
   11    -575.0213959183      3.48E-07 Convergence criterion met
 Total energy in the final basis set = -575.02139592
   11    -575.0260596066      3.21E-07 Convergence criterion met
 Total energy in the final basis set = -575.02605961
   11    -575.0306978525      2.93E-07 Convergence criterion met
 Total energy in the final basis set = -575.03069785
   10    -575.0351898037      9.46E-07 Convergence criterion met
 Total energy in the final basis set = -575.25064755
   36    -575.2493732228      2.41E-07 Convergence criterion met
 Total energy in the final basis set = -575.24937322
   36    -575.2478190964      2.71E-07 Convergence criterion met
 Total energy in the final basis set = -575.24781910
   39    -575.2461397485      4.22E-07 Convergence criterion met
 Total energy in the final basis set = -575.24613975
   35    -575.2445252416      6.68E-07 Convergence criterion met
 Total energy in the final basis set = -575.24452524
   37    -575.2431793114      6.24E-07 Convergence criterion met
 Total energy in the final basis set = -575.24317931
   18    -575.2422794631      6.19E-07 Convergence criterion met
 Total energy in the final basis set = -575.24227946

             Standard Nuclear Orientation (Angstroms)
    I     Atom           X                Y                Z
 ----------------------------------------------------------------
    1      C       2.5982218114     2.7986865873     3.0262903469
    2      H       1.7772576531     2.0684035469     3.0505520130
    3      H       2.2985710423     3.8069183972     3.0326938567
    4      H       3.1885334491     2.6497133434     3.9066100410
    5      H       3.2273361705     2.6193651667     2.1963674301
    6      O       4.9048605208     4.1720638528    -0.1054212646
    7      H       4.0189239006     4.4796645711     0.2813647514
    8      H       5.5042397719     4.9799159390    -0.1368640263
    9      O       1.1017085975    -0.0247147743     2.7903284143
   10      H       0.5139043978     0.5408482303     2.1800652862
   11      H       1.8770158734    -0.2115626108     2.2174395345
   12      O       1.8350886192     0.7940562472    -0.3145555286
   13      H       2.3390500814     1.4616606598    -0.8469756145
   14      H       0.8959178435     0.8720646019    -0.6455486562
   15      O       4.3404388202     1.0780807245     0.3150586153
   16      H       3.8172002019     1.5848018419     0.9307880919
   17      H       5.2473059600     1.4972239329     0.0929880372
   18      O       4.8358652069     4.3385304939     3.5864189237
   19      H       5.7029055382     4.5846798902     3.0709733575
   20      H       4.1568993885     4.1342756573     2.9751002776
   21      O      -0.4129993027     3.0148414128     1.7657956115
   22      H      -0.3741228513     3.3330359216     2.7299975604
   23      H       0.1683200357     3.5315807229     1.1791592415
   24      O       5.9802819352     6.1435114162     5.7043254174
   25      H       6.2177289263     5.4945638054     6.3699075687
   26      H       5.0472918131     6.0628919274     5.4283333316
 ----------------------------------------------------------------

   31    -575.2419311629      6.21E-07 Convergence criterion met
 Total energy in the final basis set = -575.24193116
 Total job time:  1480.96s(wall), 25996.66s(cpu)
        *  Thank you very much for using Q-Chem.  Have a nice day.  *
